# vtk DataFile Version 2.0
3D Unstructured Grid of Linear Triangles

ASCII



DATASET UNSTRUCTURED_GRID
POINTS 104 float
    0.000000    0.000000    0.000000
    5.773503   10.000000    0.000000
   11.547005    0.000000    0.000000
   17.320508   10.000000    0.000000
   23.094011   20.000000    0.000000
   11.547005   20.000000    0.000000
   23.094011    0.000000    0.000000
   28.867513   10.000000    0.000000
   34.641016   20.000000    0.000000
   40.414519   30.000000    0.000000
   28.867513   30.000000    0.000000
   40.414519   10.000000    0.000000
   46.188022   20.000000    0.000000
   17.320508   30.000000    0.000000
   23.094011   40.000000    0.000000
   34.641016    0.000000    0.000000
   46.188022    0.000000    0.000000
   51.961524   30.000000    0.000000
   57.735027   40.000000    0.000000
   46.188022   40.000000    0.000000
   57.735027   20.000000    0.000000
   63.508530   30.000000    0.000000
   34.641016   40.000000    0.000000
   40.414519   50.000000    0.000000
   28.867513   50.000000    0.000000
   57.735027    0.000000    0.000000
   51.961524   10.000000    0.000000
   63.508530   10.000000    0.000000
   69.282032   40.000000    0.000000
   75.055535   50.000000    0.000000
   63.508530   50.000000    0.000000
   75.055535   30.000000    0.000000
   80.829038   40.000000    0.000000
   51.961524   50.000000    0.000000
   57.735027   60.000000    0.000000
   46.188022   60.000000    0.000000
   34.641016   60.000000    0.000000
   40.414519   70.000000    0.000000
   69.282032    0.000000    0.000000
   75.055535   10.000000    0.000000
   80.829038    0.000000    0.000000
   69.282032   20.000000    0.000000
   80.829038   20.000000    0.000000
   86.602540   50.000000    0.000000
   92.376043   60.000000    0.000000
   80.829038   60.000000    0.000000
   92.376043   40.000000    0.000000
   98.149546   50.000000    0.000000
   69.282032   60.000000    0.000000
   75.055535   70.000000    0.000000
   63.508530   70.000000    0.000000
   51.961524   70.000000    0.000000
   57.735027   80.000000    0.000000
   46.188022   80.000000    0.000000
   92.376043    0.000000    0.000000
   86.602540   10.000000    0.000000
   92.376043   20.000000    0.000000
   98.149546   10.000000    0.000000
   86.602540   30.000000    0.000000
   98.149546   30.000000    0.000000
  103.923048   60.000000    0.000000
  109.696551   70.000000    0.000000
   98.149546   70.000000    0.000000
  109.696551   50.000000    0.000000
  115.470054   60.000000    0.000000
   86.602540   70.000000    0.000000
   92.376043   80.000000    0.000000
   80.829038   80.000000    0.000000
   69.282032   80.000000    0.000000
   75.055535   90.000000    0.000000
   63.508530   90.000000    0.000000
   51.961524   90.000000    0.000000
   57.735027  100.000000    0.000000
  103.923048    0.000000    0.000000
  109.696551   10.000000    0.000000
  115.470054    0.000000    0.000000
  103.923048   20.000000    0.000000
  109.696551   30.000000    0.000000
  115.470054   20.000000    0.000000
  103.923048   40.000000    0.000000
  115.470054   40.000000    0.000000
  121.243557   70.000000    0.000000
  127.017059   80.000000    0.000000
  115.470054   80.000000    0.000000
  127.017059   60.000000    0.000000
  132.790562   70.000000    0.000000
  103.923048   80.000000    0.000000
  109.696551   90.000000    0.000000
   98.149546   90.000000    0.000000
   86.602540   90.000000    0.000000
   92.376043  100.000000    0.000000
   80.829038  100.000000    0.000000
   69.282032  100.000000    0.000000
   75.055535  110.000000    0.000000
   63.508530  110.000000    0.000000
  127.017059    0.000000    0.000000
  121.243557   10.000000    0.000000
  127.017059   20.000000    0.000000
  132.790562   10.000000    0.000000
  121.243557   30.000000    0.000000
  127.017059   40.000000    0.000000
  132.790562   30.000000    0.000000
  121.243557   50.000000    0.000000
  132.790562   50.000000    0.000000

CELLS 169 676
3     0     2     1
3     3     4     5
3     3     5     1
3     3     1     2
3     3     2     6
3     3     6     7
3     3     7     4
3     8     9    10
3     8    10     4
3     8     4     7
3     8     7    11
3     8    11    12
3     8    12     9
3    13     5     4
3    13     4    10
3    13    10    14
3    15    11     7
3    15     7     6
3    15    16    11
3    17    18    19
3    17    19     9
3    17     9    12
3    17    12    20
3    17    20    21
3    17    21    18
3    22    23    24
3    22    24    14
3    22    14    10
3    22    10     9
3    22     9    19
3    22    19    23
3    26    20    12
3    26    12    11
3    26    11    16
3    26    16    25
3    26    25    27
3    26    27    20
3    28    29    30
3    28    30    18
3    28    18    21
3    28    21    31
3    28    31    32
3    28    32    29
3    33    34    35
3    33    35    23
3    33    23    19
3    33    19    18
3    33    18    30
3    33    30    34
3    36    24    23
3    36    23    35
3    36    35    37
3    38    39    27
3    38    27    25
3    38    40    39
3    41    31    21
3    41    21    20
3    41    20    27
3    41    27    39
3    41    39    42
3    41    42    31
3    43    44    45
3    43    45    29
3    43    29    32
3    43    32    46
3    43    46    47
3    43    47    44
3    48    49    50
3    48    50    34
3    48    34    30
3    48    30    29
3    48    29    45
3    48    45    49
3    51    52    53
3    51    53    37
3    51    37    35
3    51    35    34
3    51    34    50
3    51    50    52
3    55    56    42
3    55    42    39
3    55    39    40
3    55    40    54
3    55    54    57
3    55    57    56
3    58    46    32
3    58    32    31
3    58    31    42
3    58    42    56
3    58    56    59
3    58    59    46
3    60    61    62
3    60    62    44
3    60    44    47
3    60    47    63
3    60    63    64
3    60    64    61
3    65    66    67
3    65    67    49
3    65    49    45
3    65    45    44
3    65    44    62
3    65    62    66
3    68    69    70
3    68    70    52
3    68    52    50
3    68    50    49
3    68    49    67
3    68    67    69
3    71    53    52
3    71    52    70
3    71    70    72
3    73    74    57
3    73    57    54
3    73    75    74
3    76    77    59
3    76    59    56
3    76    56    57
3    76    57    74
3    76    74    78
3    76    78    77
3    79    63    47
3    79    47    46
3    79    46    59
3    79    59    77
3    79    77    80
3    79    80    63
3    81    82    83
3    81    83    61
3    81    61    64
3    81    64    84
3    81    84    85
3    81    85    82
3    86    87    88
3    86    88    66
3    86    66    62
3    86    62    61
3    86    61    83
3    86    83    87
3    89    90    91
3    89    91    69
3    89    69    67
3    89    67    66
3    89    66    88
3    89    88    90
3    92    93    94
3    92    94    72
3    92    72    70
3    92    70    69
3    92    69    91
3    92    91    93
3    96    97    78
3    96    78    74
3    96    74    75
3    96    75    95
3    96    95    98
3    96    98    97
3    99   100    80
3    99    80    77
3    99    77    78
3    99    78    97
3    99    97   101
3    99   101   100
3   102    84    64
3   102    64    63
3   102    63    80
3   102    80   100
3   102   100   103
3   102   103    84

CELL_TYPES 169
5
5
5
5
5
5
5
5
5
5
5
5
5
5
5
5
5
5
5
5
5
5
5
5
5
5
5
5
5
5
5
5
5
5
5
5
5
5
5
5
5
5
5
5
5
5
5
5
5
5
5
5
5
5
5
5
5
5
5
5
5
5
5
5
5
5
5
5
5
5
5
5
5
5
5
5
5
5
5
5
5
5
5
5
5
5
5
5
5
5
5
5
5
5
5
5
5
5
5
5
5
5
5
5
5
5
5
5
5
5
5
5
5
5
5
5
5
5
5
5
5
5
5
5
5
5
5
5
5
5
5
5
5
5
5
5
5
5
5
5
5
5
5
5
5
5
5
5
5
5
5
5
5
5
5
5
5
5
5
5
5
5
5
5
5
5
5
5
5

POINT_DATA 104
SCALARS bc int
LOOKUP_TABLE default
2
1
2
0
0
1
2
0
0
0
0
0
0
1
1
2
2
0
0
0
0
0
0
0
1
2
0
0
0
0
0
0
0
0
0
0
1
1
2
0
2
0
0
0
0
0
0
0
0
0
0
0
0
1
2
0
0
0
0
0
0
0
0
0
0
0
0
0
0
0
0
1
1
2
0
2
0
0
0
0
0
0
3
3
3
3
0
3
3
0
3
3
0
3
3
3
0
3
3
0
3
3
0
3

CELL_DATA 169
SCALARS ring int
LOOKUP_TABLE default
1
2
2
2
2
2
2
3
3
3
3
3
3
3
3
3
3
3
3
4
4
4
4
4
4
4
4
4
4
4
4
4
4
4
4
4
4
5
5
5
5
5
5
5
5
5
5
5
5
5
5
5
5
5
5
5
5
5
5
5
5
6
6
6
6
6
6
6
6
6
6
6
6
6
6
6
6
6
6
6
6
6
6
6
6
6
6
6
6
6
6
7
7
7
7
7
7
7
7
7
7
7
7
7
7
7
7
7
7
7
7
7
7
7
7
7
7
7
7
7
7
7
7
7
7
7
7
8
8
8
8
8
8
8
8
8
8
8
8
8
8
8
8
8
8
8
8
8
8
8
8
8
8
8
8
8
8
8
8
8
8
8
8
8
8
8
8
8
8
SCALARS material int
LOOKUP_TABLE default
3
2
2
2
2
2
2
3
3
3
3
3
3
2
2
2
2
2
2
2
2
2
2
2
2
2
2
2
2
2
2
2
2
2
2
2
2
2
2
2
2
2
2
2
2
2
2
2
2
3
3
3
3
3
3
2
2
2
2
2
2
2
2
2
2
2
2
2
2
2
2
2
2
2
2
2
2
2
2
2
2
2
2
2
2
2
2
2
2
2
2
1
1
1
1
1
1
1
1
1
1
1
1
1
1
1
1
1
1
1
1
1
1
1
1
1
1
1
1
1
1
1
1
1
1
1
1
4
4
4
4
4
4
4
4
4
4
4
4
4
4
4
4
4
4
4
4
4
4
4
4
4
4
4
4
4
4
4
4
4
4
4
4
4
4
4
4
4
4
SCALARS hexnum int
LOOKUP_TABLE default
1
2
2
2
2
2
2
8
8
8
8
8
8
9
9
9
19
19
19
20
20
20
20
20
20
21
21
21
21
21
21
37
37
37
37
37
37
38
38
38
38
38
38
39
39
39
39
39
39
40
40
40
60
60
60
61
61
61
61
61
61
62
62
62
62
62
62
63
63
63
63
63
63
64
64
64
64
64
64
90
90
90
90
90
90
91
91
91
91
91
91
92
92
92
92
92
92
93
93
93
93
93
93
94
94
94
94
94
94
95
95
95
125
125
125
126
126
126
126
126
126
127
127
127
127
127
127
128
128
128
128
128
128
129
129
129
129
129
129
130
130
130
130
130
130
131
131
131
131
131
131
167
167
167
167
167
167
168
168
168
168
168
168
169
169
169
169
169
169
